# vtk DataFile Version 3.0
flash 3d grid and solution
ASCII
DATASET RECTILINEAR_GRID
DIMENSIONS 26 2 2
X_COORDINATES 26 float
-0.020833334 0.020833336 0.06250001 0.10416668 0.14583334 0.18750001 0.22916669 0.27083334 0.31250003 0.3541667 0.39583337 0.43750003 0.47916672 0.5208334 0.56250006 0.6041667 0.6458334 0.68750006 0.72916675 0.7708334 0.81250006 0.85416675 0.8958334 0.93750006 0.97916675 1.0208334
Y_COORDINATES 2 float
0.0 1.0
Z_COORDINATES 2 float
0.0 1.0
CELL_DATA 25
FIELD FieldData 1
t 1 25 float
0.0 2.0596774e-05 5.203395e-05 0.000100017 0.00017325426 0.0002850374 0.00045565373 0.000716068 0.0011135424 0.0017202137 0.0026461857 0.0040595112 0.0062166923 0.009509232 0.014534686 0.022205114 0.033912607 0.051781937 0.07905618 0.12068529 0.18422444 0.28120524 0.42922857 0.65515894 1.0
