# vtk DataFile Version 3.0
flash 3d grid and solution
ASCII
DATASET RECTILINEAR_GRID
DIMENSIONS 36 2 2
X_COORDINATES 36 float
0.0 0.02857142857142857 0.05714285714285714 0.08571428571428572 0.11428571428571428 0.14285714285714285 0.17142857142857143 0.19999999999999998 0.22857142857142856 0.2571428571428571 0.2857142857142857 0.3142857142857143 0.34285714285714286 0.37142857142857144 0.39999999999999997 0.42857142857142855 0.45714285714285713 0.4857142857142857 0.5142857142857142 0.5428571428571428 0.5714285714285714 0.6 0.6285714285714286 0.6571428571428571 0.6857142857142857 0.7142857142857143 0.7428571428571429 0.7714285714285714 0.7999999999999999 0.8285714285714285 0.8571428571428571 0.8857142857142857 0.9142857142857143 0.9428571428571428 0.9714285714285714 1.0
Y_COORDINATES 2 float
0.0 1.0
Z_COORDINATES 2 float
0.0 1.0
CELL_DATA 35
FIELD FieldData 1
t 1 35 float
0.00831572355190599 0.025425724374223104 0.04303153954055326 0.06114756155611311 0.0797885757905194 0.09896979591190588 0.11870687647463966 0.13901592570020144 0.1599135186272545 0.18141671064280163 0.20354305140545909 0.2263105991721852 0.24973793554012957 0.27384418061560667 0.2986490086225449 0.3241726639631217 0.3504359777436614 0.377460384779255 0.4052679410909491 0.4338813419097569 0.4633239402021546 0.49361976573215627 0.5247935446754975 0.5568707198019117 0.5898774712419456 0.6238407378552433 0.6587882392177176 0.6947484982455376 0.7317508644743822 0.7698255380129483 0.809003594190254 0.8493170089168501 0.8907986847806341 0.9334824778985699 0.9774032255462328
