# vtk DataFile Version 3.0
flash 3d grid and solution
ASCII
DATASET RECTILINEAR_GRID
DIMENSIONS 36 2 2
X_COORDINATES 36 float
0.0 0.02857142857142857 0.05714285714285714 0.08571428571428572 0.11428571428571428 0.14285714285714285 0.17142857142857143 0.19999999999999998 0.22857142857142856 0.2571428571428571 0.2857142857142857 0.3142857142857143 0.34285714285714286 0.37142857142857144 0.39999999999999997 0.42857142857142855 0.45714285714285713 0.4857142857142857 0.5142857142857142 0.5428571428571428 0.5714285714285714 0.6 0.6285714285714286 0.6571428571428571 0.6857142857142857 0.7142857142857143 0.7428571428571429 0.7714285714285714 0.7999999999999999 0.8285714285714285 0.8571428571428571 0.8857142857142857 0.9142857142857143 0.9428571428571428 0.9714285714285714 1.0
Y_COORDINATES 2 float
0.0 1.0
Z_COORDINATES 2 float
0.0 1.0
CELL_DATA 35
FIELD FieldData 1
t 1 35 float
0.008313074307647486 0.025421140070646036 0.043025091386666596 0.06113930146931571 0.079778560144744 0.09895808592967413 0.1186935384595835 0.13900103127717328 0.15989714499154817 0.1813989408188323 0.20352397451525703 0.22629031071407663 0.2497165376779944 0.27382178247912314 0.2986257266188503 0.32414862210033724 0.3504113079667524 0.3774352273187165 0.405242444824832 0.43385566473956905 0.46329824944319664 0.49359423851887524 0.5247683683824654 0.5568460924810594 0.5898536020767096 0.6238178476323067 0.6587665608170539 0.6947282771494885 0.7317323592965319 0.769809021047579 0.8089893519831961 0.8493053428585666 0.8907899117224057 0.9334769307926744 0.9774012541110384
