# vtk DataFile Version 3.0
flash 3d grid and solution
ASCII
DATASET RECTILINEAR_GRID
DIMENSIONS 6 2 2
X_COORDINATES 6 float
-0.125 0.125 0.375 0.625 0.875 1.125
Y_COORDINATES 2 float
0.0 1.0
Z_COORDINATES 2 float
0.0 1.0
CELL_DATA 5
FIELD FieldData 1
t 1 5 float
nan nan nan nan nan
