# vtk DataFile Version 3.0
flash 3d grid and solution
ASCII
DATASET RECTILINEAR_GRID
DIMENSIONS 36 2 2
X_COORDINATES 36 float
-0.014705882 0.014705883 0.04411765 0.073529415 0.10294118 0.13235295 0.16176471 0.19117647 0.22058824 0.25 0.27941176 0.30882353 0.3382353 0.36764708 0.39705884 0.4264706 0.45588237 0.48529413 0.5147059 0.5441177 0.5735294 0.6029412 0.63235295 0.66176474 0.6911765 0.72058827 0.75 0.7794118 0.8088235 0.8382353 0.8676471 0.89705884 0.92647064 0.9558824 0.98529416 1.0147059
Y_COORDINATES 2 float
0.0 1.0
Z_COORDINATES 2 float
0.0 1.0
CELL_DATA 35
FIELD FieldData 1
t 1 35 float
0.008174579 0.025008103 0.04234398 0.060197227 0.078583285 0.09751805 0.1170179 0.1370997 0.15778081 0.17907912 0.20101301 0.2236015 0.24686413 0.27082095 0.29549274 0.3209008 0.34706712 0.37401432 0.4017657 0.43034527 0.4597777 0.4900885 0.52130383 0.55345064 0.58655685 0.62065107 0.65576273 0.6919222 0.7291607 0.7675106 0.80700487 0.84767777 0.88956445 0.9327011 0.9771251
